<?xml version="1.0"?>
<VTKFile type="UnstructuredGrid"  version="0.1"  >
<UnstructuredGrid>
<Piece  NumberOfPoints="2868" NumberOfCells="5400">
<Points>
<DataArray  type="Float64"  NumberOfComponents="3"  format="ascii">0.534923 0.326073 0  0.510642 0.314196 0  0.466125 0.293082 0  0.436448 0.281205 0  0.409468 0.275927 0  0.368998 0.270648 0  0.35281 0.275927 0  0.381139 0.302319 0  0.405421 0.326073 0  0.410817 0.33531 0  0.408119 0.349826 0  0.400025 0.357744 0  0.375743 0.368301 0  0.329878 0.392055 0  0.297502 0.432963 0  0.282663 0.476511 0  0.285361 0.524018 0  0.298851 0.572845 0  0.317737 0.6045160000000001 0  0.337972 0.6361869999999999 0  0.360904 0.674457 0  0.368998 0.69953 0  0.359555 0.7219640000000001 0  0.360904 0.757594 0  0.370347 0.766831 0  0.381139 0.762872 0  0.390582 0.741758 0  0.404072 0.720644 0  0.424307 0.707448 0  0.447239 0.702169 0  0.480964 0.704808 0  0.479615 0.6889729999999999 0  0.468823 0.675776 0  0.447239 0.6691780000000001 0  0.428354 0.6691780000000001 0  0.410817 0.6639 0  0.404072 0.653343 0  0.395978 0.628269 0  0.387884 0.59132 0  0.389233 0.576804 0  0.397327 0.557009 0  0.410817 0.547772 0  0.424307 0.546452 0  0.437797 0.55305 0  0.44589 0.5662469999999999 0  0.441843 0.582082 0  0.439145 0.5979179999999999 0  0.449937 0.609795 0  0.468823 0.603196 0  0.479615 0.59 0  0.489058 0.570205 0  0.494454 0.546452 0  0.505246 0.522699 0  0.522783 0.509502 0  0.55246 0.494986 0  0.586185 0.484429 0  0.615863 0.48047 0  0.64554 0.473872 0  0.6671240000000001 0.461995 0  0.683312 0.451438 0  0.696802 0.435603 0  0.703547 0.417128 0  0.7116400000000001 0.393374 0  0.7183850000000001 0.37226 0  0.7251300000000001 0.364342 0  0.739969 0.353785 0  0.7453650000000001 0.344548 0  0.7453650000000001 0.327393 0  0.737271 0.318155 0  0.7183850000000001 0.316835 0  0.7008490000000001 0.319475 0  0.677916 0.318155 0  0.650936 0.316835 0  0.610467 0.318155 0  0.57944 0.324753 0  0.559205 0.328712 0  0.5389699999999999 0.326073 0  1 1 0  1 0 0  0 0 0  0 1 0  0.532238 0.32476 0  0.528748 0.323052 0  0.52421 0.320833 0  0.518311 0.317947 0  0.503447 0.310783 0  0.494093 0.306347 0  0.481933 0.30058 0  0.452151 0.28749 0  0.392327 0.273691 0  0.379141 0.271971 0  0.360474 0.283066 0  0.369797 0.291752 0  0.391424 0.31238 0  0.399335 0.32012 0  0.40958 0.341964 0  0.393939 0.36039 0  0.386028 0.36383 0  0.364248 0.374254 0  0.349304 0.381994 0  0.315801 0.409841 0  0.292986 0.551616 0  0.350934 0.657818 0  0.360127 0.737055 0  0.360566 0.748664 0  0.385245 0.753692 0  0.396447 0.732578 0  0.466301 0.703661 0  0.459439 0.672908 0  0.418442 0.666195 0  0.400553 0.642441 0  0.39255 0.612619 0  0.389913 0.60058 0  0.392752 0.568197 0  0.444131 0.573132 0  0.458149 0.606926 0  0.5005540000000001 0.533026 0  0.571522 0.489019 0  0.632637 0.476741 0  0.689177 0.444553 0  0.708121 0.403702 0  0.715453 0.38144 0  0.732406 0.359166 0  0.7453650000000001 0.337089 0  0.72906 0.317581 0  0.629879 0.317522 0  0.59293 0.321884 0  0.568003 0.326991 0  0.55202 0.327775 0  0.546493 0.327054 0  0.542241 0.326499 0  1 0.9 0  1 0.8 0  1 0.7 0  1 0.6 0  1 0.5 0  1 0.4 0  1 0.3 0  1 0.2 0  1 0.1 0  0.9 0 0  0.8 0 0  0.7 0 0  0.6 0 0  0.5 0 0  0.4 0 0  0.3 0 0  0.2 0 0  0.1 0 0  0.1 1 0  0.2 1 0  0.3 1 0  0.4 1 0  0.5 1 0  0.6 1 0  0.7 1 0  0.8 1 0  0.9 1 0  0 0.1 0  0 0.2 0  0 0.3 0  0 0.4 0  0 0.5 0  0 0.6 0  0 0.7 0  0 0.8 0  0 0.9 0  0.535686 0.5031910000000001 0  0.753987 0.733359 0  0.167145 0.741436 0  0.173378 0.257204 0  0.733497 0.159862 0  0.554096 0.15788 0  0.849187 0.479053 0  0.488793 0.838452 0  0.138507 0.5592 0  0.30686 0.154944 0  0.348904 0.890523 0  0.058006 0.065099 0  0.06984899999999999 0.937917 0  0.93633 0.939704 0  0.934625 0.053613 0  0.343397 0.333452 0  0.473272 0.639943 0  0.433266 0.638072 0  0.415174 0.58269 0  0.533435 0.545042 0  0.390848 0.340652 0  0.53655 0.320242 0  0.127966 0.393775 0  0.83861 0.850455 0  0.635242 0.8551299999999999 0  0.852158 0.633441 0  0.653427 0.626848 0  0.861226 0.24292 0  0.166128 0.12976 0  0.216875 0.8698709999999999 0  0.458305 0.11179 0  0.84446 0.101633 0  0.202024 0.642528 0  0.644825 0.115855 0  0.671342 0.218358 0  0.251354 0.286186 0  0.262388 0.75153 0  0.063044 0.751571 0  0.068189 0.242962 0  0.435781 0.9053949999999999 0  0.934144 0.451133 0  0.568393 0.237622 0  0.814984 0.395506 0  0.752951 0.517227 0  0.456254 0.780699 0  0.073352 0.531116 0  0.337731 0.206071 0  0.363213 0.960371 0  0.330742 0.363592 0  0.516613 0.55705 0  0.369057 0.332992 0  0.500926 0.617309 0  0.498004 0.665534 0  0.412142 0.61178 0  0.454233 0.6366039999999999 0  0.422782 0.567496 0  0.541193 0.5214800000000001 0  0.439761 0.65557 0  0.5163 0.533672 0  0.414775 0.64562 0  0.40073 0.576135 0  0.430362 0.5880339999999999 0  0.385432 0.351492 0  0.400298 0.335397 0  0.398325 0.348194 0  0.528702 0.314885 0  0.540814 0.322334 0  0.534477 0.322953 0  0.619095 0.743583 0  0.885162 0.737972 0  0.08076 0.668849 0  0.90734 0.36634 0  0.09468699999999999 0.868937 0  0.759838 0.912152 0  0.901518 0.540898 0  0.747285 0.607479 0  0.229182 0.071641 0  0.06915399999999999 0.450091 0  0.244775 0.203309 0  0.076534 0.331755 0  0.897847 0.167826 0  0.578909 0.911415 0  0.07713299999999999 0.146341 0  0.477215 0.203448 0  0.922631 0.869341 0  0.517415 0.074785 0  0.297026 0.827793 0  0.7832710000000001 0.246505 0  0.74519 0.061079 0  0.36033 0.069068 0  0.210313 0.475228 0  0.859426 0.928758 0  0.5745479999999999 0.609182 0  0.243069 0.383398 0  0.283099 0.934598 0  0.417416 0.843141 0  0.643942 0.553164 0  0.112687 0.079336 0  0.281357 0.658386 0  0.765043 0.436177 0  0.611361 0.198486 0  0.234496 0.58911 0  0.206479 0.702638 0  0.679608 0.155818 0  0.62682 0.259978 0  0.690538 0.264164 0  0.448938 0.956308 0  0.808154 0.328403 0  0.379583 0.91913 0  0.308083 0.297769 0  0.312358 0.730249 0  0.563101 0.278576 0  0.435597 0.746198 0  0.385475 0.225229 0  0.572248 0.518034 0  0.357864 0.35422 0  0.497647 0.641694 0  0.458101 0.655768 0  0.360474 0.310727 0  0.467038 0.620139 0  0.47798 0.659909 0  0.41102 0.628072 0  0.48324 0.609015 0  0.427544 0.617941 0  0.388633 0.328253 0  0.405336 0.599404 0  0.408351 0.565178 0  0.42395 0.600985 0  0.431562 0.576523 0  0.424905 0.6551979999999999 0  0.398064 0.58782 0  0.427739 0.557934 0  0.5192909999999999 0.303443 0  0.53142 0.320293 0  0.5449000000000001 0.323642 0  0.537166 0.323513 0  0.153974 0.920841 0  0.9181859999999999 0.67343 0  0.759946 0.820588 0  0.5375259999999999 0.783091 0  0.816532 0.545843 0  0.813991 0.178083 0  0.836774 0.702023 0  0.149815 0.318856 0  0.662287 0.923338 0  0.680146 0.791192 0  0.708961 0.663172 0  0.9372779999999999 0.287318 0  0.574622 0.6881660000000001 0  0.5894740000000001 0.076262 0  0.502822 0.926683 0  0.222269 0.811068 0  0.380457 0.164786 0  0.15321 0.684154 0  0.458063 0.051413 0  0.161702 0.056026 0  0.199351 0.198818 0  0.298946 0.09553200000000001 0  0.902465 0.795949 0  0.121139 0.791477 0  0.906269 0.112287 0  0.056109 0.822332 0  0.512172 0.13237 0  0.940964 0.741805 0  0.888887 0.408777 0  0.354543 0.825964 0  0.808736 0.068638 0  0.068507 0.394071 0  0.719105 0.563843 0  0.247287 0.149664 0  0.293062 0.237128 0  0.240524 0.434997 0  0.141255 0.623289 0  0.945202 0.160621 0  0.502914 0.247629 0  0.144669 0.480811 0  0.665025 0.060817 0  0.728047 0.224344 0  0.861995 0.313312 0  0.200068 0.534235 0  0.253262 0.965623 0  0.893804 0.49307 0  0.604391 0.572456 0  0.947088 0.345347 0  0.439372 0.227307 0  0.629847 0.159823 0  0.273405 0.880181 0  0.302744 0.776823 0  0.781502 0.295365 0  0.275342 0.349602 0  0.7283849999999999 0.472798 0  0.229136 0.246478 0  0.807794 0.480346 0  0.709476 0.112786 0  0.275506 0.694991 0  0.771674 0.394419 0  0.449715 0.861802 0  0.419159 0.799696 0  0.674851 0.503139 0  0.280443 0.61016 0  0.572443 0.192538 0  0.393113 0.87525 0  0.405555 0.948428 0  0.330942 0.934103 0  0.540509 0.597101 0  0.312763 0.6689310000000001 0  0.254368 0.540179 0  0.595265 0.25915 0  0.606679 0.234099 0  0.657131 0.279138 0  0.722458 0.279478 0  0.333 0.308056 0  0.351529 0.246142 0  0.455714 0.7257940000000001 0  0.585239 0.295143 0  0.340062 0.72492 0  0.545593 0.293773 0  0.555449 0.545426 0  0.414311 0.737314 0  0.590854 0.502323 0  0.350507 0.368444 0  0.484423 0.625665 0  0.483899 0.674542 0  0.378137 0.317274 0  0.446416 0.646404 0  0.373532 0.347654 0  0.446876 0.619769 0  0.466106 0.666068 0  0.437545 0.609254 0  0.434988 0.565726 0  0.41462 0.656829 0  0.418803 0.556961 0  0.398425 0.327446 0  0.517803 0.310421 0  0.549516 0.322918 0  0.57701 0.842889 0  0.8291269999999999 0.773906 0  0.643235 0.684732 0  0.134281 0.207734 0  0.865997 0.055966 0  0.680959 0.723345 0  0.165229 0.8415550000000001 0  0.54558 0.959672 0  0.783726 0.656439 0  0.913315 0.595533 0  0.699439 0.860667 0  0.785839 0.125076 0  0.551673 0.037713 0  0.9200970000000001 0.223214 0  0.206406 0.299726 0  0.087064 0.596401 0  0.935644 0.394252 0  0.964557 0.252582 0  0.230124 0.928346 0  0.120579 0.271764 0  0.8572149999999999 0.524082 0  0.7670979999999999 0.5551469999999999 0  0.936094 0.507131 0  0.804064 0.59585 0  0.700565 0.608273 0  0.429773 0.174231 0  0.117746 0.727333 0  0.5389620000000001 0.730231 0  0.862761 0.359173 0  0.821444 0.284046 0  0.193552 0.35818 0  0.234923 0.505555 0  0.193209 0.421217 0  0.220144 0.755896 0  0.594015 0.131642 0  0.283813 0.195855 0  0.517519 0.213961 0  0.553509 0.639116 0  0.280391 0.378018 0  0.852183 0.436817 0  0.746983 0.197173 0  0.821806 0.221318 0  0.449853 0.828453 0  0.883758 0.453926 0  0.183484 0.589542 0  0.348384 0.129314 0  0.255254 0.838525 0  0.504849 0.798516 0  0.320344 0.863432 0  0.611669 0.525425 0  0.265864 0.804962 0  0.72056 0.521442 0  0.613372 0.6101220000000001 0  0.481262 0.881068 0  0.655778 0.191988 0  0.701921 0.196918 0  0.5658260000000001 0.5731810000000001 0  0.46914 0.240927 0  0.343219 0.173284 0  0.888786 0.278502 0  0.244113 0.6750930000000001 0  0.739546 0.417914 0  0.784023 0.355942 0  0.326805 0.265549 0  0.248616 0.6
[...]
<PointData  Vectors="f_14-0"> 
<DataArray  type="Float64"  Name="f_14-0"  NumberOfComponents="3" format="ascii">0.0000000000000000e+00 -1.1019232624059083e-17 0.0000000000000000e+00  0.0000000000000000e+00 0.0000000000000000e+00 0.0000000000000000e+00  0.0000000000000000e+00 -7.3636231344261578e-19 0.0000000000000000e+00  0.0000000000000000e+00 -1.3128386898970915e-16 0.0000000000000000e+00  0.0000000000000000e+00 1.2634254992775166e-16 0.0000000000000000e+00  0.0000000000000000e+00 2.9793246201117803e-17 0.0000000000000000e+00  0.0000000000000000e+00 0.0000000000000000e+00 0.0000000000000000e+00  1.2408528003515630e-17 0.0000000000000000e+00 0.0000000000000000e+00  0.0000000000000000e+00 0.0000000000000000e+00 0.0000000000000000e+00  1.5823126115769457e-18 0.0000000000000000e+00 0.0000000000000000e+00  7.2352632006177094e-19 0.0000000000000000e+00 0.0000000000000000e+00  0.0000000000000000e+00 0.0000000000000000e+00 0.0000000000000000e+00  1.5682152379552250e-18 -1.5050746721993054e-18 0.0000000000000000e+00  0.0000000000000000e+00 0.0000000000000000e+00 0.0000000000000000e+00  8.9068618132611928e-19 0.0000000000000000e+00 0.0000000000000000e+00  6.1910503600783558e-18 0.0000000000000000e+00 0.0000000000000000e+00  2.4110281485443591e-19 0.0000000000000000e+00 0.0000000000000000e+00  1.7046657463081156e-18 0.0000000000000000e+00 0.0000000000000000e+00  2.8994843239060906e-17 0.0000000000000000e+00 0.0000000000000000e+00  1.7717131344507370e-17 0.0000000000000000e+00 0.0000000000000000e+00  -1.0910025875447680e-18 0.0000000000000000e+00 0.0000000000000000e+00  4.7273964159213567e-18 0.0000000000000000e+00 0.0000000000000000e+00  0.0000000000000000e+00 0.0000000000000000e+00 0.0000000000000000e+00  0.0000000000000000e+00 0.0000000000000000e+00 0.0000000000000000e+00  0.0000000000000000e+00 0.0000000000000000e+00 0.0000000000000000e+00  0.0000000000000000e+00 0.0000000000000000e+00 0.0000000000000000e+00  -7.7778297272285401e-18 0.0000000000000000e+00 0.0000000000000000e+00  0.0000000000000000e+00 0.0000000000000000e+00 0.0000000000000000e+00  3.3661504890981329e-17 -2.6911295312387831e-17 0.0000000000000000e+00  0.0000000000000000e+00 3.5052539108823813e-17 0.0000000000000000e+00  0.0000000000000000e+00 0.0000000000000000e+00 0.0000000000000000e+00  1.2070007780749177e-16 0.0000000000000000e+00 0.0000000000000000e+00  7.2178522013564704e-17 0.0000000000000000e+00 0.0000000000000000e+00  0.0000000000000000e+00 -2.4747996612173568e-17 0.0000000000000000e+00  0.0000000000000000e+00 -7.4790143736828022e-17 0.0000000000000000e+00  2.1215363353333166e-17 5.3965055109968645e-18 0.0000000000000000e+00  2.0212326626103799e-17 0.0000000000000000e+00 0.0000000000000000e+00  -7.7248463477665195e-18 0.0000000000000000e+00 0.0000000000000000e+00  1.0281489811767959e-17 0.0000000000000000e+00 0.0000000000000000e+00  -7.9793280284461874e-17 0.0000000000000000e+00 0.0000000000000000e+00  1.0002675604033292e-16 0.0000000000000000e+00 0.0000000000000000e+00  -8.2672857024578466e-17 1.1247920259036393e-18 0.0000000000000000e+00  0.0000000000000000e+00 1.7886541507426800e-17 0.0000000000000000e+00  6.4246078669015194e-17 -2.2841851935526631e-18 0.0000000000000000e+00  -4.0463821779084240e-18 0.0000000000000000e+00 0.0000000000000000e+00  -2.9739566310723531e-17 0.0000000000000000e+00 0.0000000000000000e+00  0.0000000000000000e+00 0.0000000000000000e+00 0.0000000000000000e+00  0.0000000000000000e+00 0.0000000000000000e+00 0.0000000000000000e+00  0.0000000000000000e+00 0.0000000000000000e+00 0.0000000000000000e+00  0.0000000000000000e+00 0.0000000000000000e+00 0.0000000000000000e+00  0.0000000000000000e+00 0.0000000000000000e+00 0.0000000000000000e+00  -3.9008112114134670e-16 0.0000000000000000e+00 0.0000000000000000e+00  0.0000000000000000e+00 0.0000000000000000e+00 0.0000000000000000e+00  0.0000000000000000e+00 6.5969409782171035e-17 0.0000000000000000e+00  0.0000000000000000e+00 -8.0975753666571398e-18 0.0000000000000000e+00  0.0000000000000000e+00 -3.4360589828318254e-18 0.0000000000000000e+00  -6.8273434995135542e-18 -5.1164420969981585e-18 0.0000000000000000e+00  -2.9842981043917113e-16 -6.9592588459671850e-17 0.0000000000000000e+00  -9.7268733053753467e-18 -5.8826503355632557e-17 0.0000000000000000e+00  6.0685126495061534e-17 6.3011027375430407e-17 0.0000000000000000e+00  0.0000000000000000e+00 0.0000000000000000e+00 0.0000000000000000e+00  2.5169301305366129e-17 0.0000000000000000e+00 0.0000000000000000e+00  7.2887201702576229e-17 0.0000000000000000e+00 0.0000000000000000e+00  0.0000000000000000e+00 0.0000000000000000e+00 0.0000000000000000e+00  0.0000000000000000e+00 0.0000000000000000e+00 0.0000000000000000e+00  -1.4464745631298754e-16 1.0461650044439632e-16 0.0000000000000000e+00  2.4890700189842513e-17 0.0000000000000000e+00 0.0000000000000000e+00  0.0000000000000000e+00 0.0000000000000000e+00 0.0000000000000000e+00  2.2449558064087402e-17 0.0000000000000000e+00 0.0000000000000000e+00  0.0000000000000000e+00 1.3521275389762950e-17 0.0000000000000000e+00  0.0000000000000000e+00 1.2821129834588340e-17 0.0000000000000000e+00  0.0000000000000000e+00 0.0000000000000000e+00 0.0000000000000000e+00  0.0000000000000000e+00 -1.8315143111240861e-17 0.0000000000000000e+00  0.0000000000000000e+00 -1.0457510281316152e-17 0.0000000000000000e+00  0.0000000000000000e+00 -5.0714592283701040e-18 0.0000000000000000e+00  0.0000000000000000e+00 -8.1500166576835892e-18 0.0000000000000000e+00  0.0000000000000000e+00 -1.5260799754315327e-17 0.0000000000000000e+00  -3.5355029376074975e-17 0.0000000000000000e+00 0.0000000000000000e+00  -8.9055994138774708e-17 1.3135251982883057e-17 0.0000000000000000e+00  1.0230669493170248e-17 0.0000000000000000e+00 0.0000000000000000e+00  -2.5620864085882570e-17 0.0000000000000000e+00 0.0000000000000000e+00  0.0000000000000000e+00 -6.8734861090811872e-18 0.0000000000000000e+00  -9.1330207180112844e-18 7.1343703471225560e-20 0.0000000000000000e+00  0.0000000000000000e+00 -3.7224209959060169e-17 0.0000000000000000e+00  0.0000000000000000e+00 0.0000000000000000e+00 0.0000000000000000e+00  -2.0765463650376285e-18 -4.3188873985592601e-18 0.0000000000000000e+00  0.0000000000000000e+00 -1.6687838314696205e-17 0.0000000000000000e+00  5.7919911215939110e-17 -2.3957846792193699e-18 0.0000000000000000e+00  0.0000000000000000e+00 -1.2751122871339952e-16 0.0000000000000000e+00  0.0000000000000000e+00 -1.0897678395147569e-17 0.0000000000000000e+00  0.0000000000000000e+00 1.0590302552047829e-17 0.0000000000000000e+00  4.4118006290132323e-17 -2.1368837032516161e-17 0.0000000000000000e+00  -1.8145285865442417e-17 2.6460518238353903e-18 0.0000000000000000e+00  -4.5986488124696794e-18 -1.0162065689976099e-17 0.0000000000000000e+00  6.5661281473544441e-18 5.2526552065316522e-18 0.0000000000000000e+00  0.0000000000000000e+00 0.0000000000000000e+00 0.0000000000000000e+00  0.0000000000000000e+00 -1.6124222004443728e-18 0.0000000000000000e+00  0.0000000000000000e+00 0.0000000000000000e+00 0.0000000000000000e+00  0.0000000000000000e+00 -7.6543919631516946e-18 0.0000000000000000e+00  -1.6490851099552076e-18 1.5216178321866101e-18 0.0000000000000000e+00  -1.3696095957626125e-17 0.0000000000000000e+00 0.0000000000000000e+00  0.0000000000000000e+00 0.0000000000000000e+00 0.0000000000000000e+00  -3.4884392057173027e-18 0.0000000000000000e+00 0.0000000000000000e+00  9.9672237641271745e-18 0.0000000000000000e+00 0.0000000000000000e+00  2.8782860788956400e-17 0.0000000000000000e+00 0.0000000000000000e+00  0.0000000000000000e+00 0.0000000000000000e+00 0.0000000000000000e+00  0.0000000000000000e+00 0.0000000000000000e+00 0.0000000000000000e+00  0.0000000000000000e+00 -4.9991964111494689e-18 0.0000000000000000e+00  0.0000000000000000e+00 -3.3090140024535729e-17 0.0000000000000000e+00  0.0000000000000000e+00 1.9641672995645785e-17 0.0000000000000000e+00  7.3418850032022073e-18 0.0000000000000000e+00 0.0000000000000000e+00  -1.1272972810720131e-16 0.0000000000000000e+00 0.0000000000000000e+00  0.0000000000000000e+00 0.0000000000000000e+00 0.0000000000000000e+00  3.3028596871151043e-18 0.0000000000000000e+00 0.0000000000000000e+00  0.0000000000000000e+00 0.0000000000000000e+00 0.0000000000000000e+00  0.0000000000000000e+00 -4.8483295588426577e-17 0.0000000000000000e+00  2.2024469536929260e-17 0.0000000000000000e+00 0.0000000000000000e+00  0.0000000000000000e+00 2.0111166316587123e-16 0.0000000000000000e+00  0.0000000000000000e+00 -7.9363916648090028e-18 0.0000000000000000e+00  5.1125488080706849e-16 0.0000000000000000e+00 0.0000000000000000e+00  2.2116581080500205e-17 0.0000000000000000e+00 0.0000000000000000e+00  1.0019647440130342e-16 0.0000000000000000e+00 0.0000000000000000e+00  0.0000000000000000e+00 0.0000000000000000e+00 0.0000000000000000e+00  2.9275530571178104e-19 0.0000000000000000e+00 0.0000000000000000e+00  0.0000000000000000e+00 -2.5420891839669264e-17 0.0000000000000000e+00  0.0000000000000000e+00 4.5787380211614567e-17 0.0000000000000000e+00  0.0000000000000000e+00 2.6329954405981094e-17 0.0000000000000000e+00  0.0000000000000000e+00 -2.3639270576177534e-17 0.0000000000000000e+00  0.0000000000000000e+00 9.1435374651310770e-18 0.0000000000000000e+00  0.0000000000000000e+00 4.3491349681772857e-18 0.0000000000000000e+00  0.0000000000000000e+00 3.0058332031069419e-17 0.0000000000000000e+00  -3.0901699437494773e-01 0.0000000000000000e+00 0.0000000000000000e+00  -5.8778525229247336e-01 0.0000000000000000e+00 0.0000000000000000e+00  -8.0901699437494889e-01 0.0000000000000000e+00 0.0000000000000000e+00  -9.5105651629515386e-01 0.0000000000000000e+00 0.0000000000000000e+00  -9.9999999999999789e-01 0.0000000000000000e+00 0.0000000000000000e+00  -9.5105651629515375e-01 0.0000000000000000e+00 0.0000000000000000e+00  -8.0901699437494667e-01 0.0000000000000000e+00 0.0000000000000000e+00  -5.8778525229247347e-01 0.0000000000000000e+00 0.0000000000000000e+00  -3.0901699437494756e-01 0.0000000000000000e+00 0.0000000000000000e+00  0.0000000000000000e+00 -3.2128268646296806e-16 0.0000000000000000e+00  0.0000000000000000e+00 -2.2855117241010779e-16 0.0000000000000000e+00  0.0000000000000000e+00 -5.5484325954259142e-17 0.0000000000000000e+00  0.0000000000000000e+00 -3.1752339202098357e-17 0.0000000000000000e+00  0.0000000000000000e+00 -1.4709412490209969e-16 0.0000000000000000e+00  0.0000000000000000e+00 8.0247158947263831e-17 0.0000000000000000e+00  0.0000000000000000e+00 -1.1013623856069683e-17 0.0000000000000000e+00  0.0000000000000000e+00 -2.2680930397956783e-17 0.0000000000000000e+00  0.0000000000000000e+00 2.5858778666709657e-17 0.0000000000000000e+00  0.0000000000000000e+00 -7.9099238077379239e-18 0.0000000000000000e+00  0.0000000000000000e+00 -1.3365314839650228e-17 0.0000000000000000e+00  0.0000000000000000e+00 1.7332802890553927e-16 0.0000000000000000e+00  0.0000000000000000e+00 1.4896803064814231e-16 0.0000000000000000e+00  0.0000000000000000e+00 2.3915132078975389e-17 0.0000000000000000e+00  0.0000000000000000e+00 -1.8768017260593913e-16 0.0000000000000000e+00  0.0000000000000000e+00 -3.0298925576004298e-16 0.0000000000000000e+00  0.0000000000000000e+00 1.3163849494288919e-16 0.0000000000000000e+00  0.0000000000000000e+00 1.2779129614882197e-16 0.0000000000000000e+00  -5.2830736391804778e-01 9.8105925195263677e-02 0.0000000000000000e+00  -7.7585752321557344e-01 2.0055542007197680e-01 0.0000000000000000e+00  -7.3523235117839736e-01 2.1134744717163620e-01 0.0000000000000000e+00  -6.0676542079178919e-01 1.1407915012957257e-01 0.0000000000000000e+00  -5.6071686356312589e-01 -4.7500390393903316e-02 0.0000000000000000e+00  -6.5872398181055047e-01 -2.1377507223046818e-01 0.0000000000000000e+00  -8.4288141212206369e-01 -3.1841822792657604e-01 0.0000000000000000e+00  -9.2404973469730722e-01 -2.9584024487828836e-01 0.0000000000000000e+00  -6.4112772204845869e-01 -1.4628394596694921e-01 0.0000000000000000e+00  -7.8921847777680120e-17 7.0495815748258852e-17 0.0000000000000000e+00  -8.7086930442795008e-01 4.7203147596467304e-01 0.0000000000000000e+00  -8.7290776282773264e-01 -5.7457046796020217e-01 0.0000000000000000e+00  -7.7529237934625916e-01 4.3195047162772382e-01 0.0000000000000000e+00  -1.2711598468949503e+00 -2.6464245743278297e-01 0.0000000000000000e+00  -1.3841599627111447e+00 -1.1556969411685994e-01 0.0000000000000000e+00  -6.0173506051619530e-01 -3.3209721072771384e-02 0.0000000000000000e+00  -1.6889554154654969e+00 5.3992797108059787e-01 0.0000000000000000e+00  -3.3352478116185746e-01 -1.7628174973151495e-01 0.0000000000000000e+00  -1.3836274019406964e+00 3.2126380111346270e-01 0.0000000000000000e+00  -1.9732457094971720e+00 -1.6544644319028526e-01 0.0000000000000000e+00  -4.3122898685692324e-01 5.3265335729579213e-02 0.0000000000000000e+00  -5.4397616009047678e-01 -7.5641311769305955e-02 0.0000000000000000e+00  -2.0511065933674300e-01 1.6086776396134008e-02 0.0000000000000000e+00  -2.2349994726017519e-01 -4.6407493989406877e-02 0.0000000000000000e+00  -3.5951294743414805e-03 3.9051064444259910e-02 0.0000000000000000e+00  9.6345636173525797e-04 9.7298173152960497e-03 0.0000000000000000e+00  1.0065798814209352e-04 -2.7016137823566346e-03 0.0000000000000000e+00  -2.9412848506351809e-05 6.4373669449925082e-06 0.0000000000000000e+00  -2.7891796637341613e-02 3.2524331275755720e-02 0.0000000000000000e+00  1.3965433337216886e-03 -5.6224906906025378e-03 0.0000000000000000e+00  -3.1918454968760966e-02 -7.8790442049863612e-03 0.0000000000000000e+00  -4.1197194355974875e-01 1.9025381958636761e-01 0.0000000000000000e+00  -6.2182949920192732e-01 1.8695946590868223e-01 0.0000000000000000e+00  -1.1565291723615501e+00 4.0489789337749627e-01 0.0000000000000000e+00  -8.2487749391235110e-01 3.1350727886213337e-01 0.0000000000000000e+00  -5.1454003718995889e-01 4.3541164374827884e-01 0.0000000000000000e+00  -8.8312373696491198e-01 -7.2675145402947161e-01 0.0000000000000000e+00  -9.2259098071722956e-01 2.3113536365097112e-01 0.0000000000000000e+00  -1.3973939260360895e+00 -4.5585155193543714e-01 0.0000000000000000e+00  -1.4117134703302117e+00 -5.9564793018450995e-02 0.0000000000000000e+00  -7.0458233041362517e-01 -2.2429775762638324e-01 0.0000000000000000e+00  -3.6844483706583891e-01 -3.7872561354071216e-01 0.0000000000000000e+00  -1.2516294564063184e+00 -8.1503038690617924e-02 0.0000000000000000e+00  -1.1964086038979791e+00 -1.2751423592613709e-01 0.0000000000000000e+00  -5.3014889254382302e-01 4.8812131727787317e-01 0.0000000000000000e+00  -7.5772900410732169e-01 -7.2595080401217027e-01 0.0000000000000000e+00  -9.2899836865630692e-01 -3.7483133851447220e-01 0.0000000000000000e+00  -7.9822148165233764e-01 2.6335769414444721e-01 0.0000000000000000e+00  -1.7950683875354021e+00 1.8798927823888592e-01 0.0000000000000000e+00  -8.7495424622790363e-01 -1.6360037599362232e-01 0.0000000000000000e+00  -9.3713464316038553e-01 -9.0544597543819633e-02 0.0000000000000000e+00  -2.9541935539424596e-01 -3.2625530006378312e-01 0.0000000000000000e+00  -4.3833344574177546e-01 2.3491277150778569e-01 0.0000000000000000e+00  -1.1255615206776186e+00 5.1427447595362075e-01 0.0000000000000000e+00  -4.4250393713834602e-01 -1.0671315120702798e-01 0.0000000000000000e+00  -1.2736323309526050e+00 3.5373043702946938e-01 0.0000000000000000e+00  -1.0559337915677078e+00 -1.5661559772041037e-02 0.0000000000000000e+00  -1.1584399236643183e-02 3.5577240033773189e-02 0.0000000000000000e+00  -1.5958987293076474e-02 2.6637150439377959e-02 0.0000000000000000e+00  2.4566939776791983e-03 -1.0382449054292699e-02 0.0000000000000000e+00  -1.7270845053679654e-02 6.3493356383267793e-02 0.0000000000000000e+00  -2.3602040880212723e-02 1.3685723130656072e-01 0.0000000000000000e+00  1.7641609583049508e-04 -1.2954908043057143e-04 0.0000000000000000e+00  1.8430416940587123e-03 -4.4957605671215343e-03 0.0000000000000000e+00  -1.7409833451703956e-05 -6.7244551887449928e-06 0.0000000000000000e+00  -1.7644274056801319e-02 1.3447529283736475e-02 0.0000000000000000e+00  -3.0229255260437755e-03 -2.2349299035110742e-03 0.0000000000000000e+00  -6.0487629392488420e-03 7.6202584047567797e-03 0.0000000000000000e+00  -2.8354012839295484e-04 -7.3261228102886804e-04 0.0000000000000000e+00  -1.3729077603241265e-05 2.2189247887822272e-05 0.0000000000000000e+00  -1.4496982185982836e-05 -4.9298910371808592e-05 0.0000000000000000e+00  4.5896471111139536e-03 -4.6242669365028320e-03 0.0000000000000000e+00  -3.0290498192899075e-04 -2.2958565142311596e-03 0.0000000000000000e+00  1.0907615563360683e-03 -1.7974871157577371e-03 0.0000000000000000e+00  -5.4606107318478939e-02 -1.9646423705856567e-02 0.0000000000000000e+00  -2.5154721589042556e-02 -4.0980915480509066e-03 0.0000000000000000e+00  -1.1880635223689468e-02 -3.6445680711742348e-03 0.0000000000000000e+00  -9.4388540181513569e-01 6.7069792721787158e-01 0.0000000000000000e+00  -7.7938106816399022e-01 2.7084977926129133e-01 0.0000000000000000e+00  -7.0311061169326472e-01 -3.5096152079646020e-01 0.0000000000000000e+00  -7.3555625196336027e-01 -5.0867227340143584e-01 0.0000000000000000e+00  -9.7002029827156244e-01 -2.5823807847164182e-01 0.0000000000000000e+00  -5.5966319672238729e-01 1.1536724430478083e-01 0.0000000000000000e+00  -8.5238387144620842e-01 9.2436729367602499e-02 0.0000000000000000e+00  -6.6026952611459577e-01 3.9905930643177639e-01 0.0000000000000000e+00  -8.0587108030485977e-01 1.0670507244292310e-01 0.0000000000000000e+00  -4.4792970293402273e-01 5.0860273833083884e-02 0.0000000000000000e+00  -1.0671961481682695e+00 4.9757260470080283e-01 0.0000000000000000e+00  -6.2571558030827645e-01 2.3661379199175211e-01 0.0000000000000000e+00  -7.2729789751049700e-01 -4.3374782749753626e-01 0.0000000000000000e+00  -1.1444699041041821e+00 2.2832533543439798e-01 0.0000000000000000e+00  -7.8305401965171917e-01 1.8214793339317165e-01 0.0000000000000000e+00  -1.2344847710946765e+00 -1.7683600785853817e-01 0.0000000000000000e+00  -4.4439966656920071e-01 8.2252393311663660e-02 0.0000000000000000e+00  -1.0889368907137857e+00 -4.3241336900066228e-02 0.0000000000000000e+00  -1.6488574361161155e+00 -6.8475045718446792e-01 0.0000000000000000e+00  -1.0565917338566553e+00 -6.2100407631097865e-01 0.0000000000000000e+00  -7.1237230885059566e-01 -6.4573214149659566e-02 0.0000000000000000e+00  -1.0668758764589521e+00 4.6006279523105965e-02 0.0000000000000000e+00  -1.1989905463856758e-01 3.3457874476098090e-02 0.0000000000000000e+00  -3.1357308210240814e-01 4.8558055055528286e-02 0.0000000000000000e+00  -2.0616490515499858e-01 2.6423558523012214e-01 0.0000000000000000e+00  -1.7881823787923637e-01 2.1390541018657694e-01 0.0000000000000000e+00  -1.2959680466086310e+00 -1.5811803585912892e-01 0.0000000000000000e+00  -1.9593282819746556e+00 3.2780064520703245e-01 0.0000000000000000e+00  -3.0460049392580008e-01 2.1328315430394609e-01 0.0000000000000000e+00  -5.9548569116365790e-01 8.5157544372419222e-02 0.0000000000000000e+00  -1.6452902376504289e-01 -2.6926415775937967e-01 0.0000000000000000e+00  -1.7989857971212767e-01 2.3296382616755110e-02 0.0000000000000000e+00  -1.2537930303272493e+00 -9.0376204835761503e-02 0.0000000000000000e+00  -1.5340903313287255e-01 -2.0492677829543102e-01 0.0000000000000000e+00  -5.9785834558355411e-01 -5.5324440255897367e-01 0.0000000000000000e+00  -1.3329947952936514e+00 -1.4775593964950426e-01 0.0000000000000000e+00  -7.9205518607520398e-01 -2.6628736415264455e-02 0.0000000000000000e+00  -8.4558139033758328e-01 -9.8311701968676543e-02 0.0000000000000000e+00  -1.0587265750817234e+00 5.7419473011172582e-02 0.0000000000000000e+00  -4.4394019002790924e-01 -6.7549999399045957e-01 0.0000000000000000e+00  -1.7512408579192940e+00 -3.5782055245689942e-03 0.0000000000000000e+00  -2.2050121472765474e-01 3.4783540982001582e-01 0.0000000000000000e+00  -2.6907034809918645e-01 -4.7121868505481473e-01 0.0000000000000000e+00  -4.9287612251193674e-01 -4.1975328329248419e-02 0.0000000000000000e+00  -4.2064470875618432e-01 2.3790115330807335e-01 0.0000000000000000e+00  -1.0800854325174236e+00 4.897206