<?xml version="1.0"?>
<VTKFile type="UnstructuredGrid"  version="0.1"  >
<UnstructuredGrid>
<Piece  NumberOfPoints="1089" NumberOfCells="2048">
<Points>
<DataArray  type="Float64"  NumberOfComponents="3"  format="ascii">0 0 0  0.03125 0 0  0.0625 0 0  0.09375 0 0  0.125 0 0  0.15625 0 0  0.1875 0 0  0.21875 0 0  0.25 0 0  0.28125 0 0  0.3125 0 0  0.34375 0 0  0.375 0 0  0.40625 0 0  0.4375 0 0  0.46875 0 0  0.5 0 0  0.53125 0 0  0.5625 0 0  0.59375 0 0  0.625 0 0  0.65625 0 0  0.6875 0 0  0.71875 0 0  0.75 0 0  0.78125 0 0  0.8125 0 0  0.84375 0 0  0.875 0 0  0.90625 0 0  0.9375 0 0  0.96875 0 0  1 0 0  0 0.03125 0  0.03125 0.03125 0  0.0625 0.03125 0  0.09375 0.03125 0  0.125 0.03125 0  0.15625 0.03125 0  0.1875 0.03125 0  0.21875 0.03125 0  0.25 0.03125 0  0.28125 0.03125 0  0.3125 0.03125 0  0.34375 0.03125 0  0.375 0.03125 0  0.40625 0.03125 0  0.4375 0.03125 0  0.46875 0.03125 0  0.5 0.03125 0  0.53125 0.03125 0  0.5625 0.03125 0  0.59375 0.03125 0  0.625 0.03125 0  0.65625 0.03125 0  0.6875 0.03125 0  0.71875 0.03125 0  0.75 0.03125 0  0.78125 0.03125 0  0.8125 0.03125 0  0.84375 0.03125 0  0.875 0.03125 0  0.90625 0.03125 0  0.9375 0.03125 0  0.96875 0.03125 0  1 0.03125 0  0 0.0625 0  0.03125 0.0625 0  0.0625 0.0625 0  0.09375 0.0625 0  0.125 0.0625 0  0.15625 0.0625 0  0.1875 0.0625 0  0.21875 0.0625 0  0.25 0.0625 0  0.28125 0.0625 0  0.3125 0.0625 0  0.34375 0.0625 0  0.375 0.0625 0  0.40625 0.0625 0  0.4375 0.0625 0  0.46875 0.0625 0  0.5 0.0625 0  0.53125 0.0625 0  0.5625 0.0625 0  0.59375 0.0625 0  0.625 0.0625 0  0.65625 0.0625 0  0.6875 0.0625 0  0.71875 0.0625 0  0.75 0.0625 0  0.78125 0.0625 0  0.8125 0.0625 0  0.84375 0.0625 0  0.875 0.0625 0  0.90625 0.0625 0  0.9375 0.0625 0  0.96875 0.0625 0  1 0.0625 0  0 0.09375 0  0.03125 0.09375 0  0.0625 0.09375 0  0.09375 0.09375 0  0.125 0.09375 0  0.15625 0.09375 0  0.1875 0.09375 0  0.21875 0.09375 0  0.25 0.09375 0  0.28125 0.09375 0  0.3125 0.09375 0  0.34375 0.09375 0  0.375 0.09375 0  0.40625 0.09375 0  0.4375 0.09375 0  0.46875 0.09375 0  0.5 0.09375 0  0.53125 0.09375 0  0.5625 0.09375 0  0.59375 0.09375 0  0.625 0.09375 0  0.65625 0.09375 0  0.6875 0.09375 0  0.71875 0.09375 0  0.75 0.09375 0  0.78125 0.09375 0  0.8125 0.09375 0  0.84375 0.09375 0  0.875 0.09375 0  0.90625 0.09375 0  0.9375 0.09375 0  0.96875 0.09375 0  1 0.09375 0  0 0.125 0  0.03125 0.125 0  0.0625 0.125 0  0.09375 0.125 0  0.125 0.125 0  0.15625 0.125 0  0.1875 0.125 0  0.21875 0.125 0  0.25 0.125 0  0.28125 0.125 0  0.3125 0.125 0  0.34375 0.125 0  0.375 0.125 0  0.40625 0.125 0  0.4375 0.125 0  0.46875 0.125 0  0.5 0.125 0  0.53125 0.125 0  0.5625 0.125 0  0.59375 0.125 0  0.625 0.125 0  0.65625 0.125 0  0.6875 0.125 0  0.71875 0.125 0  0.75 0.125 0  0.78125 0.125 0  0.8125 0.125 0  0.84375 0.125 0  0.875 0.125 0  0.90625 0.125 0  0.9375 0.125 0  0.96875 0.125 0  1 0.125 0  0 0.15625 0  0.03125 0.15625 0  0.0625 0.15625 0  0.09375 0.15625 0  0.125 0.15625 0  0.15625 0.15625 0  0.1875 0.15625 0  0.21875 0.15625 0  0.25 0.15625 0  0.28125 0.15625 0  0.3125 0.15625 0  0.34375 0.15625 0  0.375 0.15625 0  0.40625 0.15625 0  0.4375 0.15625 0  0.46875 0.15625 0  0.5 0.15625 0  0.53125 0.15625 0  0.5625 0.15625 0  0.59375 0.15625 0  0.625 0.15625 0  0.65625 0.15625 0  0.6875 0.15625 0  0.71875 0.15625 0  0.75 0.15625 0  0.78125 0.15625 0  0.8125 0.15625 0  0.84375 0.15625 0  0.875 0.15625 0  0.90625 0.15625 0  0.9375 0.15625 0  0.96875 0.15625 0  1 0.15625 0  0 0.1875 0  0.03125 0.1875 0  0.0625 0.1875 0  0.09375 0.1875 0  0.125 0.1875 0  0.15625 0.1875 0  0.1875 0.1875 0  0.21875 0.1875 0  0.25 0.1875 0  0.28125 0.1875 0  0.3125 0.1875 0  0.34375 0.1875 0  0.375 0.1875 0  0.40625 0.1875 0  0.4375 0.1875 0  0.46875 0.1875 0  0.5 0.1875 0  0.53125 0.1875 0  0.5625 0.1875 0  0.59375 0.1875 0  0.625 0.1875 0  0.65625 0.1875 0  0.6875 0.1875 0  0.71875 0.1875 0  0.75 0.1875 0  0.78125 0.1875 0  0.8125 0.1875 0  0.84375 0.1875 0  0.875 0.1875 0  0.90625 0.1875 0  0.9375 0.1875 0  0.96875 0.1875 0  1 0.1875 0  0 0.21875 0  0.03125 0.21875 0  0.0625 0.21875 0  0.09375 0.21875 0  0.125 0.21875 0  0.15625 0.21875 0  0.1875 0.21875 0  0.21875 0.21875 0  0.25 0.21875 0  0.28125 0.21875 0  0.3125 0.21875 0  0.34375 0.21875 0  0.375 0.21875 0  0.40625 0.21875 0  0.4375 0.21875 0  0.46875 0.21875 0  0.5 0.21875 0  0.53125 0.21875 0  0.5625 0.21875 0  0.59375 0.21875 0  0.625 0.21875 0  0.65625 0.21875 0  0.6875 0.21875 0  0.71875 0.21875 0  0.75 0.21875 0  0.78125 0.21875 0  0.8125 0.21875 0  0.84375 0.21875 0  0.875 0.21875 0  0.90625 0.21875 0  0.9375 0.21875 0  0.96875 0.21875 0  1 0.21875 0  0 0.25 0  0.03125 0.25 0  0.0625 0.25 0  0.09375 0.25 0  0.125 0.25 0  0.15625 0.25 0  0.1875 0.25 0  0.21875 0.25 0  0.25 0.25 0  0.28125 0.25 0  0.3125 0.25 0  0.34375 0.25 0  0.375 0.25 0  0.40625 0.25 0  0.4375 0.25 0  0.46875 0.25 0  0.5 0.25 0  0.53125 0.25 0  0.5625 0.25 0  0.59375 0.25 0  0.625 0.25 0  0.65625 0.25 0  0.6875 0.25 0  0.71875 0.25 0  0.75 0.25 0  0.78125 0.25 0  0.8125 0.25 0  0.84375 0.25 0  0.875 0.25 0  0.90625 0.25 0  0.9375 0.25 0  0.96875 0.25 0  1 0.25 0  0 0.28125 0  0.03125 0.28125 0  0.0625 0.28125 0  0.09375 0.28125 0  0.125 0.28125 0  0.15625 0.28125 0  0.1875 0.28125 0  0.21875 0.28125 0  0.25 0.28125 0  0.28125 0.28125 0  0.3125 0.28125 0  0.34375 0.28125 0  0.375 0.28125 0  0.40625 0.28125 0  0.4375 0.28125 0  0.46875 0.28125 0  0.5 0.28125 0  0.53125 0.28125 0  0.5625 0.28125 0  0.59375 0.28125 0  0.625 0.28125 0  0.65625 0.28125 0  0.6875 0.28125 0  0.71875 0.28125 0  0.75 0.28125 0  0.78125 0.28125 0  0.8125 0.28125 0  0.84375 0.28125 0  0.875 0.28125 0  0.90625 0.28125 0  0.9375 0.28125 0  0.96875 0.28125 0  1 0.28125 0  0 0.3125 0  0.03125 0.3125 0  0.0625 0.3125 0  0.09375 0.3125 0  0.125 0.3125 0  0.15625 0.3125 0  0.1875 0.3125 0  0.21875 0.3125 0  0.25 0.3125 0  0.28125 0.3125 0  0.3125 0.3125 0  0.34375 0.3125 0  0.375 0.3125 0  0.40625 0.3125 0  0.4375 0.3125 0  0.46875 0.3125 0  0.5 0.3125 0  0.53125 0.3125 0  0.5625 0.3125 0  0.59375 0.3125 0  0.625 0.3125 0  0.65625 0.3125 0  0.6875 0.3125 0  0.71875 0.3125 0  0.75 0.3125 0  0.78125 0.3125 0  0.8125 0.3125 0  0.84375 0.3125 0  0.875 0.3125 0  0.90625 0.3125 0  0.9375 0.3125 0  0.96875 0.3125 0  1 0.3125 0  0 0.34375 0  0.03125 0.34375 0  0.0625 0.34375 0  0.09375 0.34375 0  0.125 0.34375 0  0.15625 0.34375 0  0.1875 0.34375 0  0.21875 0.34375 0  0.25 0.34375 0  0.28125 0.34375 0  0.3125 0.34375 0  0.34375 0.34375 0  0.375 0.34375 0  0.40625 0.34375 0  0.4375 0.34375 0  0.46875 0.34375 0  0.5 0.34375 0  0.53125 0.34375 0  0.5625 0.34375 0  0.59375 0.34375 0  0.625 0.34375 0  0.65625 0.34375 0  0.6875 0.34375 0  0.71875 0.34375 0  0.75 0.34375 0  0.78125 0.34375 0  0.8125 0.34375 0  0.84375 0.34375 0  0.875 0.34375 0  0.90625 0.34375 0  0.9375 0.34375 0  0.96875 0.34375 0  1 0.34375 0  0 0.375 0  0.03125 0.375 0  0.0625 0.375 0  0.09375 0.375 0  0.125 0.375 0  0.15625 0.375 0  0.1875 0.375 0  0.21875 0.375 0  0.25 0.375 0  0.28125 0.375 0  0.3125 0.375 0  0.34375 0.375 0  0.375 0.375 0  0.40625 0.375 0  0.4375 0.375 0  0.46875 0.375 0  0.5 0.375 0  0.53125 0.375 0  0.5625 0.375 0  0.59375 0.375 0  0.625 0.375 0  0.65625 0.375 0  0.6875 0.375 0  0.71875 0.375 0  0.75 0.375 0  0.78125 0.375 0  0.8125 0.375 0  0.84375 0.375 0  0.875 0.375 0  0.90625 0.375 0  0.9375 0.375 0  0.96875 0.375 0  1 0.375 0  0 0.40625 0  0.03125 0.40625 0  0.0625 0.40625 0  0.09375 0.40625 0  0.125 0.40625 0  0.15625 0.40625 0  0.1875 0.40625 0  0.21875 0.40625 0  0.25 0.40625 0  0.28125 0.40625 0  0.3125 0.40625 0  0.34375 0.40625 0  0.375 0.40625 0  0.40625 0.40625 0  0.4375 0.40625 0  0.46875 0.40625 0  0.5 0.40625 0  0.53125 0.40625 0  0.5625 0.40625 0  0.59375 0.40625 0  0.625 0.40625 0  0.65625 0.40625 0  0.6875 0.40625 0  0.71875 0.40625 0  0.75 0.40625 0  0.78125 0.40625 0  0.8125 0.40625 0  0.84375 0.40625 0  0.875 0.40625 0  0.90625 0.40625 0  0.9375 0.40625 0  0.96875 0.40625 0  1 0.40625 0  0 0.4375 0  0.03125 0.4375 0  0.0625 0.4375 0  0.09375 0.4375 0  0.125 0.4375 0  0.15625 0.4375 0  0.1875 0.4375 0  0.21875 0.4375 0  0.25 0.4375 0  0.28125 0.4375 0  0.3125 0.4375 0  0.34375 0.4375 0  0.375 0.4375 0  0.40625 0.4375 0  0.4375 0.4375 0  0.46875 0.4375 0  0.5 0.4375 0  0.53125 0.4375 0  0.5625 0.4375 0  0.59375 0.4375 0  0.625 0.4375 0  0.65625 0.4375 0  0.6875 0.4375 0  0.71875 0.4375 0  0.75 0.4375 0  0.78125 0.4375 0  0.8125 0.4375 0  0.84375 0.4375 0  0.875 0.4375 0  0.90625 0.4375 0  0.9375 0.4375 0  0.96875 0.4375 0  1 0.4375 0  0 0.46875 0  0.03125 0.46875 0  0.0625 0.46875 0  0.09375 0.46875 0  0.125 0.46875 0  0.15625 0.46875 0  0.1875 0.46875 0  0.21875 0.46875 0  0.25 0.46875 0  0.28125 0.46875 0  0.3125 0.46875 0  0.34375 0.46875 0  0.375 0.46875 0  0.40625 0.46875 0  0.4375 0.46875 0  0.46875 0.46875 0  0.5 0.46875 0  0.53125 0.46875 0  0.5625 0.46875 0  0.59375 0.46875 0  0.625 0.46875 0  0.65625 0.46875 0  0.6875 0.46875 0  0.71875 0.46875 0  0.75 0.46875 0  0.78125 0.46875 0  0.8125 0.46875 0  0.84375 0.46875 0  0.875 0.46875 0  0.90625 0.46875 0  0.9375 0.46875 0  0.96875 0.46875 0  1 0.46875 0  0 0.5 0  0.03125 0.5 0  0.0625 0.5 0  0.09375 0.5 0  0.125 0.5 0  0.15625 0.5 0  0.1875 0.5 0  0.21875 0.5 0  0.25 0.5 0  0.28125 0.5 0  0.3125 0.5 0  0.34375 0.5 0  0.375 0.5 0  0.40625 0.5 0  0.4375 0.5 0  0.46875 0.5 0  0.5 0.5 0  0.53125 0.5 0  0.5625 0.5 0  0.59375 0.5 0  0.625 0.5 0  0.65625 0.5 0  0.6875 0.5 0  0.71875 0.5 0  0.75 0.5 0  0.78125 0.5 0  0.8125 0.5 0  0.84375 0.5 0  0.875 0.5 0  0.90625 0.5 0  0.9375 0.5 0  0.96875 0.5 0  1 0.5 0  0 0.53125 0  0.03125 0.53125 0  0.0625 0.53125 0  0.09375 0.53125 0  0.125 0.53125 0  0.15625 0.53125 0  0.1875 0.53125 0  0.21875 0.53125 0  0.25 0.53125 0  0.28125 0.53125 0  0.3125 0.53125 0  0.34375 0.53125 0  0.375 0.53125 0  0.40625 0.53125 0  0.4375 0.53125 0  0.46875 0.53125 0  0.5 0.53125 0  0.53125 0.53125 0  0.5625 0.53125 0  0.59375 0.53125 0  0.625 0.53125 0  0.65625 0.53125 0  0.6875 0.53125 0  0.71875 0.53125 0  0.75 0.53125 0  0.78125 0.531
[...]
<PointData  Vectors="f_351-0"> 
<DataArray  type="Float64"  Name="f_351-0"  NumberOfComponents="3" format="ascii">0.0000000000000000e+00 1.0000000000000000e+00 0.0000000000000000e+00  0.0000000000000000e+00 9.9518472667219682e-01 0.0000000000000000e+00  0.0000000000000000e+00 9.8078528040323043e-01 0.0000000000000000e+00  0.0000000000000000e+00 9.5694033573220882e-01 0.0000000000000000e+00  0.0000000000000000e+00 9.2387953251128663e-01 0.0000000000000000e+00  0.0000000000000000e+00 8.8192126434835505e-01 0.0000000000000000e+00  0.0000000000000000e+00 8.3146961230254512e-01 0.0000000000000000e+00  0.0000000000000000e+00 7.7301045336273699e-01 0.0000000000000000e+00  0.0000000000000000e+00 7.0710678118654757e-01 0.0000000000000000e+00  0.0000000000000000e+00 6.3439328416364549e-01 0.0000000000000000e+00  0.0000000000000000e+00 5.5557023301960229e-01 0.0000000000000000e+00  0.0000000000000000e+00 4.7139673682599775e-01 0.0000000000000000e+00  0.0000000000000000e+00 3.8268343236508984e-01 0.0000000000000000e+00  0.0000000000000000e+00 2.9028467725446233e-01 0.0000000000000000e+00  0.0000000000000000e+00 1.9509032201612833e-01 0.0000000000000000e+00  0.0000000000000000e+00 9.8017140329560770e-02 0.0000000000000000e+00  0.0000000000000000e+00 6.1232339957367648e-17 0.0000000000000000e+00  0.0000000000000000e+00 -9.8017140329560631e-02 0.0000000000000000e+00  0.0000000000000000e+00 -1.9509032201612819e-01 0.0000000000000000e+00  0.0000000000000000e+00 -2.9028467725446216e-01 0.0000000000000000e+00  0.0000000000000000e+00 -3.8268343236508973e-01 0.0000000000000000e+00  0.0000000000000000e+00 -4.7139673682599770e-01 0.0000000000000000e+00  0.0000000000000000e+00 -5.5557023301960196e-01 0.0000000000000000e+00  0.0000000000000000e+00 -6.3439328416364538e-01 0.0000000000000000e+00  0.0000000000000000e+00 -7.0710678118654746e-01 0.0000000000000000e+00  0.0000000000000000e+00 -7.7301045336273699e-01 0.0000000000000000e+00  0.0000000000000000e+00 -8.3146961230254535e-01 0.0000000000000000e+00  0.0000000000000000e+00 -8.8192126434835494e-01 0.0000000000000000e+00  0.0000000000000000e+00 -9.2387953251128663e-01 0.0000000000000000e+00  0.0000000000000000e+00 -9.5694033573220882e-01 0.0000000000000000e+00  0.0000000000000000e+00 -9.8078528040323043e-01 0.0000000000000000e+00  0.0000000000000000e+00 -9.9518472667219682e-01 0.0000000000000000e+00  0.0000000000000000e+00 -1.0000000000000000e+00 0.0000000000000000e+00  9.8017140329560604e-02 1.0000000000000000e+00 0.0000000000000000e+00  9.8017140253784010e-02 9.9518472635902566e-01 0.0000000000000000e+00  9.8017140544143469e-02 9.8078528008804533e-01 0.0000000000000000e+00  9.8017140983252496e-02 9.5694033539419554e-01 0.0000000000000000e+00  9.8017141478912731e-02 9.2387953215375695e-01 0.0000000000000000e+00  9.8017142003471266e-02 8.8192126398789850e-01 0.0000000000000000e+00  9.8017142527567575e-02 8.3146961194731339e-01 0.0000000000000000e+00  9.8017143038246338e-02 7.7301045302259552e-01 0.0000000000000000e+00  9.8017143518952576e-02 7.0710678086878731e-01 0.0000000000000000e+00  9.8017143961317416e-02 6.3439328387254279e-01 0.0000000000000000e+00  9.8017144356076155e-02 5.5557023276055095e-01 0.0000000000000000e+00  9.8017144696226480e-02 4.7139673659868286e-01 0.0000000000000000e+00  9.8017144978913839e-02 3.8268343217329109e-01 0.0000000000000000e+00  9.8017145203108141e-02 2.9028467710056977e-01 0.0000000000000000e+00  9.8017145367623085e-02 1.9509032189985004e-01 0.0000000000000000e+00  9.8017145466515548e-02 9.8017140254038779e-02 0.0000000000000000e+00  9.8017145501291633e-02 -3.4690435564804439e-11 0.0000000000000000e+00  9.8017145468557637e-02 -9.8017140323227683e-02 0.0000000000000000e+00  9.8017145370570435e-02 -1.9509032196866705e-01 0.0000000000000000e+00  9.8017145208537645e-02 -2.9028467716783418e-01 0.0000000000000000e+00  9.8017144985291585e-02 -3.8268343223990636e-01 0.0000000000000000e+00  9.8017144702461659e-02 -4.7139673666188542e-01 0.0000000000000000e+00  9.8017144363813660e-02 -5.5557023282114337e-01 0.0000000000000000e+00  9.8017143971509624e-02 -6.3439328393155248e-01 0.0000000000000000e+00  9.8017143533731213e-02 -7.0710678092339407e-01 0.0000000000000000e+00  9.8017143050399394e-02 -7.7301045307355287e-01 0.0000000000000000e+00  9.8017142543613017e-02 -8.3146961198981095e-01 0.0000000000000000e+00  9.8017142015126166e-02 -8.8192126402672133e-01 0.0000000000000000e+00  9.8017141498229626e-02 -9.2387953219604324e-01 0.0000000000000000e+00  9.8017141005513259e-02 -9.5694033542656776e-01 0.0000000000000000e+00  9.8017140556929130e-02 -9.8078528011306831e-01 0.0000000000000000e+00  9.8017140202062064e-02 -9.9518472636158695e-01 0.0000000000000000e+00  9.8017140329560604e-02 -1.0000000000000000e+00 0.0000000000000000e+00  1.9509032201612825e-01 1.0000000000000000e+00 0.0000000000000000e+00  1.9509032212999741e-01 9.9518472615480802e-01 0.0000000000000000e+00  1.9509032252029834e-01 9.8078527960041917e-01 0.0000000000000000e+00  1.9509032317899155e-01 9.5694033477636009e-01 0.0000000000000000e+00  1.9509032397390699e-01 9.2387953147572799e-01 0.0000000000000000e+00  1.9509032483200053e-01 8.8192126328376541e-01 0.0000000000000000e+00  1.9509032570701293e-01 8.3146961125051844e-01 0.0000000000000000e+00  1.9509032656461703e-01 7.7301045235635912e-01 0.0000000000000000e+00  1.9509032737692464e-01 7.0710678025013929e-01 0.0000000000000000e+00  1.9509032812620805e-01 6.3439328331318290e-01 0.0000000000000000e+00  1.9509032880128915e-01 5.5557023227013025e-01 0.0000000000000000e+00  1.9509032938656154e-01 4.7139673618669958e-01 0.0000000000000000e+00  1.9509032987630848e-01 3.8268343184353709e-01 0.0000000000000000e+00  1.9509033026397130e-01 2.9028467685296827e-01 0.0000000000000000e+00  1.9509033054575345e-01 1.9509032173962423e-01 0.0000000000000000e+00  1.9509033071804668e-01 9.8017140185300500e-02 0.0000000000000000e+00  1.9509033077525245e-01 -1.2123562828950403e-11 0.0000000000000000e+00  1.9509033071914464e-01 -9.8017140207559139e-02 0.0000000000000000e+00  1.9509033054854386e-01 -1.9509032176487887e-01 0.0000000000000000e+00  1.9509033026918046e-01 -2.9028467687696557e-01 0.0000000000000000e+00  1.9509032988228583e-01 -3.8268343186389475e-01 0.0000000000000000e+00  1.9509032939437251e-01 -4.7139673620920419e-01 0.0000000000000000e+00  1.9509032880856836e-01 -5.5557023229355440e-01 0.0000000000000000e+00  1.9509032813481084e-01 -6.3439328333770040e-01 0.0000000000000000e+00  1.9509032738419768e-01 -7.0710678027316831e-01 0.0000000000000000e+00  1.9509032656854586e-01 -7.7301045237422017e-01 0.0000000000000000e+00  1.9509032571122226e-01 -8.3146961127220798e-01 0.0000000000000000e+00  1.9509032483861635e-01 -8.8192126330092535e-01 0.0000000000000000e+00  1.9509032399202494e-01 -9.2387953150423030e-01 0.0000000000000000e+00  1.9509032319777628e-01 -9.5694033479479323e-01 0.0000000000000000e+00  1.9509032252087058e-01 -9.8078527960642081e-01 0.0000000000000000e+00  1.9509032207796678e-01 -9.9518472616103193e-01 0.0000000000000000e+00  1.9509032201612825e-01 -1.0000000000000000e+00 0.0000000000000000e+00  2.9028467725446233e-01 1.0000000000000000e+00 0.0000000000000000e+00  2.9028467744835879e-01 9.9518472583228634e-01 0.0000000000000000e+00  2.9028467795620194e-01 9.8078527897838585e-01 0.0000000000000000e+00  2.9028467874723834e-01 9.5694033395376465e-01 0.0000000000000000e+00  2.9028467970604516e-01 9.2387953053887450e-01 0.0000000000000000e+00  2.9028468075901631e-01 8.8192126230026135e-01 0.0000000000000000e+00  2.9028468184350248e-01 8.3146961026453214e-01 0.0000000000000000e+00  2.9028468290950732e-01 7.7301045140260249e-01 0.0000000000000000e+00  2.9028468393206569e-01 7.0710677935581445e-01 0.0000000000000000e+00  2.9028468487964593e-01 6.3439328249492200e-01 0.0000000000000000e+00  2.9028468573492422e-01 5.5557023154699259e-01 0.0000000000000000e+00  2.9028468648214312e-01 4.7139673556842171e-01 0.0000000000000000e+00  2.9028468711004185e-01 3.8268343133735833e-01 0.0000000000000000e+00  2.9028468760623938e-01 2.9028467646981559e-01 0.0000000000000000e+00  2.9028468796519452e-01 1.9509032148192593e-01 0.0000000000000000e+00  2.9028468818318354e-01 9.8017140056936083e-02 0.0000000000000000e+00  2.9028468825714626e-01 -1.1534582901387714e-11 0.0000000000000000e+00  2.9028468818543324e-01 -9.8017140077279491e-02 0.0000000000000000e+00  2.9028468797124446e-01 -1.9509032150416494e-01 0.0000000000000000e+00  2.9028468761279824e-01 -2.9028467649246531e-01 0.0000000000000000e+00  2.9028468711995636e-01 -3.8268343135822031e-01 0.0000000000000000e+00  2.9028468649370326e-01 -4.7139673558914813e-01 0.0000000000000000e+00  2.9028468574524524e-01 -5.5557023156667307e-01 0.0000000000000000e+00  2.9028468488754966e-01 -6.3439328251654759e-01 0.0000000000000000e+00  2.9028468393509904e-01 -7.0710677937445554e-01 0.0000000000000000e+00  2.9028468290997966e-01 -7.7301045141867653e-01 0.0000000000000000e+00  2.9028468183537626e-01 -8.3146961028146305e-01 0.0000000000000000e+00  2.9028468075047875e-01 -8.8192126232453438e-01 0.0000000000000000e+00  2.9028467969361238e-01 -9.2387953055907324e-01 0.0000000000000000e+00  2.9028467872755570e-01 -9.5694033396513212e-01 0.0000000000000000e+00  2.9028467793652163e-01 -9.8078527898280887e-01 0.0000000000000000e+00  2.9028467739271158e-01 -9.9518472584650064e-01 0.0000000000000000e+00  2.9028467725446233e-01 -1.0000000000000000e+00 0.0000000000000000e+00  3.8268343236508973e-01 1.0000000000000000e+00 0.0000000000000000e+00  3.8268343258295084e-01 9.9518472542201553e-01 0.0000000000000000e+00  3.8268343315604936e-01 9.8078527826539330e-01 0.0000000000000000e+00  3.8268343401258897e-01 9.5694033302417092e-01 0.0000000000000000e+00  3.8268343504816049e-01 9.2387952947537944e-01 0.0000000000000000e+00  3.8268343618787504e-01 8.8192126116515301e-01 0.0000000000000000e+00  3.8268343737171917e-01 8.3146960912207502e-01 0.0000000000000000e+00  3.8268343855142256e-01 7.7301045028901305e-01 0.0000000000000000e+00  3.8268343968049101e-01 7.0710677830440072e-01 0.0000000000000000e+00  3.8268344073736421e-01 6.3439328153266428e-01 0.0000000000000000e+00  3.8268344169416824e-01 5.5557023068827638e-01 0.0000000000000000e+00  3.8268344253409231e-01 4.7139673483198996e-01 0.0000000000000000e+00  3.8268344323964021e-01 3.8268343073618460e-01 0.0000000000000000e+00  3.8268344379828051e-01 2.9028467601109520e-01 0.0000000000000000e+00  3.8268344420325578e-01 1.9509032117219199e-01 0.0000000000000000e+00  3.8268344444826125e-01 9.8017139898489092e-02 0.0000000000000000e+00  3.8268344453048914e-01 -1.1173341879149264e-11 0.0000000000000000e+00  3.8268344444959174e-01 -9.8017139923734509e-02 0.0000000000000000e+00  3.8268344420665179e-01 -1.9509032119723613e-01 0.0000000000000000e+00  3.8268344380341346e-01 -2.9028467603558195e-01 0.0000000000000000e+00  3.8268344324702830e-01 -3.8268343075920846e-01 0.0000000000000000e+00  3.8268344254314524e-01 -4.7139673485233824e-01 0.0000000000000000e+00  3.8268344170330881e-01 -5.5557023070681888e-01 0.0000000000000000e+00  3.8268344074360305e-01 -6.3439328154864172e-01 0.0000000000000000e+00  3.8268343968379209e-01 -7.0710677831841684e-01 0.0000000000000000e+00  3.8268343854525438e-01 -7.7301045030206306e-01 0.0000000000000000e+00  3.8268343736481514e-01 -8.3146960913628842e-01 0.0000000000000000e+00  3.8268343617536171e-01 -8.8192126118498659e-01 0.0000000000000000e+00  3.8268343502455127e-01 -9.2387952948797314e-01 0.0000000000000000e+00  3.8268343399623489e-01 -9.5694033303367299e-01 0.0000000000000000e+00  3.8268343314760733e-01 -9.8078527827801765e-01 0.0000000000000000e+00  3.8268343253741782e-01 -9.9518472544461734e-01 0.0000000000000000e+00  3.8268343236508973e-01 -1.0000000000000000e+00 0.0000000000000000e+00  4.7139673682599759e-01 1.0000000000000000e+00 0.0000000000000000e+00  4.7139673703906998e-01 9.9518472498425636e-01 0.0000000000000000e+00  4.7139673761880596e-01 9.8078527751576772e-01 0.0000000000000000e+00  4.7139673848042490e-01 9.5694033205482243e-01 0.0000000000000000e+00  4.7139673952521510e-01 9.2387952836491960e-01 0.0000000000000000e+00  4.7139674067693232e-01 8.8192125998341908e-01 0.0000000000000000e+00  4.7139674187851555e-01 8.3146960791717550e-01 0.0000000000000000e+00  4.7139674308262630e-01 7.7301044910917616e-01 0.0000000000000000e+00  4.7139674424645928e-01 7.0710677718211434e-01 0.0000000000000000e+00  4.7139674533678355e-01 6.3439328049905752e-01 0.0000000000000000e+00  4.7139674633076589e-01 5.5557022976559411e-01 0.0000000000000000e+00  4.7139674720275065e-01 4.7139673403734189e-01 0.0000000000000000e+00  4.7139674793609843e-01 3.8268343008407690e-01 0.0000000000000000e+00  4.7139674852052604e-01 2.9028467551334652e-01 0.0000000000000000e+00  4.7139674894260153e-01 1.9509032083739725e-01 0.0000000000000000e+00  4.7139674919936453e-01 9.8017139730069702e-02 0.0000000000000000e+00  4.7139674928494668e-01 -1.2776376523766489e-11 0.0000000000000000e+00  4.7139674920207630e-01 -9.8017139756086585e-02 0.0000000000000000e+00  4.7139674894665262e-01 -1.9509032086303874e-01 0.0000000000000000e+00  4.7139674852511160e-01 -2.9028467554004866e-01 0.0000000000000000e+00  4.7139674794195158e-01 -3.8268343010951489e-01 0.0000000000000000e+00  4.7139674720907659e-01 -4.7139673405816990e-01 0.0000000000000000e+00  4.7139674633548412e-01 -5.5557022978120996e-01 0.0000000000000000e+00  4.7139674534086506e-01 -6.3439328051380861e-01 0.0000000000000000e+00  4.7139674424703865e-01 -7.0710677719381387e-01 0.0000000000000000e+00  4.7139674308076129e-01 -7.7301044911750527e-01 0.0000000000000000e+00  4.7139674187483244e-01 -8.3146960792647640e-01 0.0000000000000000e+00  4.7139674066699228e-01 -8.8192125999460114e-01 0.0000000000000000e+00  4.7139673950926858e-01 -9.2387952837401222e-01 0.0000000000000000e+00  4.7139673846465585e-01 -9.5694033207412488e-01 0.0000000000000000e+00  4.7139673761633866e-01 -9.8078527753581224e-01 0.0000000000000000e+00  4.7139673699474333e-01 -9.9518472500394783e-01 0.0000000000000000e+00  4.7139673682599759e-01 -1.0000000000000000e+00 0.0000000000000000e+00  5.5557023301960218e-01 1.0000000000000000e+00 0.0000000000000000e+00  5.5557023321062682e-01 9.9518472455879292e-01 0.0000000000000000e+00  5.5557023375733539e-01 9.8078527678435101e-01 0.0000000000000000e+00  5.5557023457656396e-01 9.5694033110792887e-01 0.0000000000000000e+00  5.5557023556860097e-01 9.2387952727638101e-01 0.0000000000000000e+00  5.5557023666931438e-01 8.8192125881661942e-01 0.0000000000000000e+00  5.5557023782600867e-01 8.3146960672360459e-01 0.0000000000000000e+00  5.5557023899132008e-01 7.7301044793290186e-01 0.0000000000000000e+00  5.5557024012707268e-01 7.0710677605916639e-01 0.0000000000000000e+00  5.5557024119271992e-01 6.3439327945917712e-01 0.0000000000000000e+00  5.5557024216798712e-01 5.5557022883451579e-01 0.0000000000000000e+00  5.5557024302824709e-01 4.7139673323311798e-01 0.0000000000000000e+00  5.5557024375173802e-01 3.8268342942591227e-01 0.0000000000000000e+00  5.5557024432991498e-01 2.9028467500837424e-01 0.0000000000000000e+00  5.5557024475064609e-01 1.9509032049674224e-01 0.0000000000000000e+00  5.5557024500450736e-01 9.8017139559188046e-02 0.0000000000000000e+00  5.5557024509042108e-01 -1.4245312402532468e-11 0.0000000000000000e+00  5.5557024500544772e-01 -9.8017139586221796e-02 0.0000000000000000e+00  5.5557024475266281e-01 -1.9509032052425712e-01 0.0000000000000000e+00  5.5557024433513202e-01 -2.9028467503722105e-01 0.0000000000000000e+00  5.5557024375905628e-01 -3.8268342945033273e-01 0.0000000000000000e+00  5.5557024303376734e-01 -4.7139673325449971e-01 0.0000000000000000e+00  5.5557024217377493e-01 -5.5557022885103746e-01 0.0000000000000000e+00  5.5557024119881249e-01 -6.3439327947184254e-01 0.0000000000000000e+00  5.5557024013068190e-01 -7.0710677606818051e-01 0.0000000000000000e+00  5.5557023899698810e-01 -7.7301044793903018e-01 0.0000000000000000e+00  5.5557023783035309e-01 -8.3146960672987991e-01 0.0000000000000000e+00  5.5557023667139205e-01 -8.8192125882328498e-01 0.0000000000000000e+00  5.5557023556731278e-01 -9.2387952728529521e-01 0.0000000000000000e+00  5.5557023457243082e-01 -9.5694033113041788e-01 0.0000000000000000e+00  5.5557023374787984e-01 -9.8078527681386829e-01 0.0000000000000000e+00  5.5557023316736642e-01 -9.9518472458077933e-01 0.0000000000000000e+00  5.5557023301960218e-01 -1.0000000000000000e+00 0.0000000000000000e+00  6.3439328416364549e-01 1.0000000000000000e+00 0.0000000000000000e+00  6.3439328432439024e-01 9.9518472417075055e-01 0.0000000000000000e+00  6.3439328480843904e-01 9.8078527611024324e-01 0.0000000000000000e+00  6.3439328554263386e-01 9.5694033023328018e-01 0.0000000000000000e+00  6.3439328644280224e-01 9.2387952626374192e-01 0.0000000000000000e+00  6.3439328744976931e-01 8.8192125772217334e-01 0.0000000000000000e+00  6.3439328851183074e-01 8.3146960559769778e-01 0.0000000000000000e+00  6.3439328958911201e-01 7.7301044681507070e-01 0.0000000000000000e+00  6.3439329064147654e-01 7.0710677498754015e-01 0.0000000000000000e+00  6.3439329164023595e-01 6.3439327846528526e-01 0.0000000000000000e+00  6.3439329255395494e-01 5.5557022793716393e-01 0.0000000000000000e+00  6.3439329336327910e-01 4.7139673245902997e-01 0.0000000000000000e+00  6.3439329404890332e-01 3.8268342878810430e-01 0.0000000000000000e+00  6.3439329459688643e-01 2.9028467451870954e-01 0.0000000000000000e+00  6.3439329499413821e-01 1.9509032016479338e-01 0.0000000000000000e+00  6.3439329523768706e-01 9.8017139390650820e-02 0.0000000000000000e+00  6.3439329531927890e-01 -1.4991103634403038e-11 0.0000000000000000e+00  6.3439329523940546e-01 -9.8017139421264138e-02 0.0000000000000000e+00  6.3439329499847119e-01 -1.9509032019492190e-01 0.0000000000000000e+00  6.3439329460142568e-01 -2.9028467455094648e-01 0.0000000000000000e+00  6.3439329405506284e-01 -3.8268342881356798e-01 0.0000000000000000e+00  6.3439329337117067e-01 -4.7139673247929953e-01 0.0000000000000000e+00  6.3439329256082000e-01 -5.5557022795450139e-01 0.0000000000000000e+00  6.3439329164548253e-01 -6.3439327847586635e-01 0.0000000000000000e+00  6.3439329064877292e-01 -7.0710677499656827e-01 0.0000000000000000e+00  6.3439328959650476e-01 -7.7301044682197873e-01 0.0000000000000000e+00  6.3439328852054300e-01 -8.3146960560085725e-01 0.0000000000000000e+00  6.3439328745579704e-01 -8.8192125772893193e-01 0.0000000000000000e+00  6.3439328644958748e-01 -9.2387952627233549e-01 0.0000000000000000e+00  6.3439328554726415e-01 -9.5694033025011538e-01 0.0000000000000000e+00  6.3439328480314383e-01 -9.8078527613475841e-01 0.0000000000000000e+00  6.3439328428032382e-01 -9.9518472419005211e-01 0.0000000000000000e+00  6.3439328416364549e-01 -1.0000000000000000e+00 0.0000000000000000e+00  7.0710678118654746e-01 1.0000000000000000e+00 0.0000000000000000e+00  7.0710678130573645e-01 9.9518472383492607e-01 0.0000000000000000e+00  7.0710678171296504e-01 9.8078527552279071e-01 0.0000000000000000e+00  7.0710678234044155e-01 9.5694032945972096e-01 0.0000000000000000e+00  7.0710678311913844e-01 9.2387952536199047e-01 0.0000000000000000e+00  7.0710678399606919e-01 8.8192125674407673e-01 0.0000000000000000e+00  7.0710678492886370e-01 8.3146960458397356e-01 0.0000000000000000e+00  7.0710678587956244e-01 7.7301044580164413e-01 0.0000000000000000e+00  7.0710678681478234e-01 7.0710677400972233e-01 0.0000000000000000e+00  7.0710678770786972e-01 6.3439327755138963e-01 0.0000000000000000e+00  7.0710678852907816e-01 5.5557022711230508e-01 0.0000000000000000e+00  7.0710678925982384e-01 4.7139673174238039e-01 0.0000000000000000e+00  7.0710678988138198e-01 3.8268342819507256e-01 0.0000000000000000e+00  7.0710679037964663e-01 2.9028467406538994e-01 0.0000000000000000e+00  7.0710679074366012e-01 1.9509031985821346e-01 0.0000000000000000e+00  7.0710679096428697e-01 9.8017139234887862e-02 0.0000000000000000e+00  7.0710679104050034e-01 -1.5369047759274713e-11 0.0000000000000000e+00  7.0710679096808648e-01 -9.8017139265976022e-02 0.0000000000000000e+00  7.0710679